&FCI NORB=98 ,NELEC=98 ,MS2=0,
ORBSYM=1,1,1,1,1,1,1,1,1,1,1,1,1,1,1,1,1,1,1,1,1,1,1,1,1,1,1,1,1,1,1,1,1,1,1,1,1,1,1,1,1,1,1,1,1,1,1,1,1,1,1,1,1,1,1,1,1,1,1,1,1,1,1,1,1,1,1,1,1,1,1,1,1,1,1,1,1,1,1,1,1,1,1,1,1,1,1,1,1,1,1,1,1,1,1,1,1,1,
ISYM=1,
&END
     -1.00000000     1     98      0      0 
     -1.00000000     1     14      0      0 
     -1.00000000     1     86      0      0 
     -1.00000000     1      2      0      0 
     -1.00000000     2      1      0      0 
     -1.00000000     2     15      0      0 
     -1.00000000     2      3      0      0 
     -1.00000000     2     17      0      0 
     -1.00000000     3     86      0      0 
     -1.00000000     3      2      0      0 
     -1.00000000     3     88      0      0 
     -1.00000000     3      4      0      0 
     -1.00000000     4      3      0      0 
     -1.00000000     4     17      0      0 
     -1.00000000     4      5      0      0 
     -1.00000000     4     19      0      0 
     -1.00000000     5     88      0      0 
     -1.00000000     5      4      0      0 
     -1.00000000     5     90      0      0 
     -1.00000000     5      6      0      0 
     -1.00000000     6      5      0      0 
     -1.00000000     6     19      0      0 
     -1.00000000     6      7      0      0 
     -1.00000000     6     21      0      0 
     -1.00000000     7     90      0      0 
     -1.00000000     7      6      0      0 
     -1.00000000     7     92      0      0 
     -1.00000000     7      8      0      0 
     -1.00000000     8      7      0      0 
     -1.00000000     8     21      0      0 
     -1.00000000     8      9      0      0 
     -1.00000000     8     23      0      0 
     -1.00000000     9     92      0      0 
     -1.00000000     9      8      0      0 
     -1.00000000     9     94      0      0 
     -1.00000000     9     10      0      0 
     -1.00000000    10      9      0      0 
     -1.00000000    10     23      0      0 
     -1.00000000    10     11      0      0 
     -1.00000000    10     25      0      0 
     -1.00000000    11     94      0      0 
     -1.00000000    11     10      0      0 
     -1.00000000    11     96      0      0 
     -1.00000000    11     12      0      0 
     -1.00000000    12     11      0      0 
     -1.00000000    12     25      0      0 
     -1.00000000    12     13      0      0 
     -1.00000000    12     27      0      0 
     -1.00000000    13     96      0      0 
     -1.00000000    13     12      0      0 
     -1.00000000    13     98      0      0 
     -1.00000000    13     14      0      0 
     -1.00000000    14     13      0      0 
     -1.00000000    14     27      0      0 
     -1.00000000    14      1      0      0 
     -1.00000000    14     15      0      0 
     -1.00000000    15     14      0      0 
     -1.00000000    15     28      0      0 
     -1.00000000    15      2      0      0 
     -1.00000000    15     16      0      0 
     -1.00000000    16     15      0      0 
     -1.00000000    16     29      0      0 
     -1.00000000    16     17      0      0 
     -1.00000000    16     31      0      0 
     -1.00000000    17      2      0      0 
     -1.00000000    17     16      0      0 
     -1.00000000    17      4      0      0 
     -1.00000000    17     18      0      0 
     -1.00000000    18     17      0      0 
     -1.00000000    18     31      0      0 
     -1.00000000    18     19      0      0 
     -1.00000000    18     33      0      0 
     -1.00000000    19      4      0      0 
     -1.00000000    19     18      0      0 
     -1.00000000    19      6      0      0 
     -1.00000000    19     20      0      0 
     -1.00000000    20     19      0      0 
     -1.00000000    20     33      0      0 
     -1.00000000    20     21      0      0 
     -1.00000000    20     35      0      0 
     -1.00000000    21      6      0      0 
     -1.00000000    21     20      0      0 
     -1.00000000    21      8      0      0 
     -1.00000000    21     22      0      0 
     -1.00000000    22     21      0      0 
     -1.00000000    22     35      0      0 
     -1.00000000    22     23      0      0 
     -1.00000000    22     37      0      0 
     -1.00000000    23      8      0      0 
     -1.00000000    23     22      0      0 
     -1.00000000    23     10      0      0 
     -1.00000000    23     24      0      0 
     -1.00000000    24     23      0      0 
     -1.00000000    24     37      0      0 
     -1.00000000    24     25      0      0 
     -1.00000000    24     39      0      0 
     -1.00000000    25     10      0      0 
     -1.00000000    25     24      0      0 
     -1.00000000    25     12      0      0 
     -1.00000000    25     26      0      0 
     -1.00000000    26     25      0      0 
     -1.00000000    26     39      0      0 
     -1.00000000    26     27      0      0 
     -1.00000000    26     41      0      0 
     -1.00000000    27     12      0      0 
     -1.00000000    27     26      0      0 
     -1.00000000    27     14      0      0 
     -1.00000000    27     28      0      0 
     -1.00000000    28     27      0      0 
     -1.00000000    28     41      0      0 
     -1.00000000    28     15      0      0 
     -1.00000000    28     29      0      0 
     -1.00000000    29     28      0      0 
     -1.00000000    29     42      0      0 
     -1.00000000    29     16      0      0 
     -1.00000000    29     30      0      0 
     -1.00000000    30     29      0      0 
     -1.00000000    30     43      0      0 
     -1.00000000    30     31      0      0 
     -1.00000000    30     45      0      0 
     -1.00000000    31     16      0      0 
     -1.00000000    31     30      0      0 
     -1.00000000    31     18      0      0 
     -1.00000000    31     32      0      0 
     -1.00000000    32     31      0      0 
     -1.00000000    32     45      0      0 
     -1.00000000    32     33      0      0 
     -1.00000000    32     47      0      0 
     -1.00000000    33     18      0      0 
     -1.00000000    33     32      0      0 
     -1.00000000    33     20      0      0 
     -1.00000000    33     34      0      0 
     -1.00000000    34     33      0      0 
     -1.00000000    34     47      0      0 
     -1.00000000    34     35      0      0 
     -1.00000000    34     49      0      0 
     -1.00000000    35     20      0      0 
     -1.00000000    35     34      0      0 
     -1.00000000    35     22      0      0 
     -1.00000000    35     36      0      0 
     -1.00000000    36     35      0      0 
     -1.00000000    36     49      0      0 
     -1.00000000    36     37      0      0 
     -1.00000000    36     51      0      0 
     -1.00000000    37     22      0      0 
     -1.00000000    37     36      0      0 
     -1.00000000    37     24      0      0 
     -1.00000000    37     38      0      0 
     -1.00000000    38     37      0      0 
     -1.00000000    38     51      0      0 
     -1.00000000    38     39      0      0 
     -1.00000000    38     53      0      0 
     -1.00000000    39     24      0      0 
     -1.00000000    39     38      0      0 
     -1.00000000    39     26      0      0 
     -1.00000000    39     40      0      0 
     -1.00000000    40     39      0      0 
     -1.00000000    40     53      0      0 
     -1.00000000    40     41      0      0 
     -1.00000000    40     55      0      0 
     -1.00000000    41     26      0      0 
     -1.00000000    41     40      0      0 
     -1.00000000    41     28      0      0 
     -1.00000000    41     42      0      0 
     -1.00000000    42     41      0      0 
     -1.00000000    42     55      0      0 
     -1.00000000    42     29      0      0 
     -1.00000000    42     43      0      0 
     -1.00000000    43     42      0      0 
     -1.00000000    43     56      0      0 
     -1.00000000    43     30      0      0 
     -1.00000000    43     44      0      0 
     -1.00000000    44     43      0      0 
     -1.00000000    44     57      0      0 
     -1.00000000    44     45      0      0 
     -1.00000000    44     59      0      0 
     -1.00000000    45     30      0      0 
     -1.00000000    45     44      0      0 
     -1.00000000    45     32      0      0 
     -1.00000000    45     46      0      0 
     -1.00000000    46     45      0      0 
     -1.00000000    46     59      0      0 
     -1.00000000    46     47      0      0 
     -1.00000000    46     61      0      0 
     -1.00000000    47     32      0      0 
     -1.00000000    47     46      0      0 
     -1.00000000    47     34      0      0 
     -1.00000000    47     48      0      0 
     -1.00000000    48     47      0      0 
     -1.00000000    48     61      0      0 
     -1.00000000    48     49      0      0 
     -1.00000000    48     63      0      0 
     -1.00000000    49     34      0      0 
     -1.00000000    49     48      0      0 
     -1.00000000    49     36      0      0 
     -1.00000000    49     50      0      0 
     -1.00000000    50     49      0      0 
     -1.00000000    50     63      0      0 
     -1.00000000    50     51      0      0 
     -1.00000000    50     65      0      0 
     -1.00000000    51     36      0      0 
     -1.00000000    51     50      0      0 
     -1.00000000    51     38      0      0 
     -1.00000000    51     52      0      0 
     -1.00000000    52     51      0      0 
     -1.00000000    52     65      0      0 
     -1.00000000    52     53      0      0 
     -1.00000000    52     67      0      0 
     -1.00000000    53     38      0      0 
     -1.00000000    53     52      0      0 
     -1.00000000    53     40      0      0 
     -1.00000000    53     54      0      0 
     -1.00000000    54     53      0      0 
     -1.00000000    54     67      0      0 
     -1.00000000    54     55      0      0 
     -1.00000000    54     69      0      0 
     -1.00000000    55     40      0      0 
     -1.00000000    55     54      0      0 
     -1.00000000    55     42      0      0 
     -1.00000000    55     56      0      0 
     -1.00000000    56     55      0      0 
     -1.00000000    56     69      0      0 
     -1.00000000    56     43      0      0 
     -1.00000000    56     57      0      0 
     -1.00000000    57     56      0      0 
     -1.00000000    57     70      0      0 
     -1.00000000    57     44      0      0 
     -1.00000000    57     58      0      0 
     -1.00000000    58     57      0      0 
     -1.00000000    58     71      0      0 
     -1.00000000    58     59      0      0 
     -1.00000000    58     73      0      0 
     -1.00000000    59     44      0      0 
     -1.00000000    59     58      0      0 
     -1.00000000    59     46      0      0 
     -1.00000000    59     60      0      0 
     -1.00000000    60     59      0      0 
     -1.00000000    60     73      0      0 
     -1.00000000    60     61      0      0 
     -1.00000000    60     75      0      0 
     -1.00000000    61     46      0      0 
     -1.00000000    61     60      0      0 
     -1.00000000    61     48      0      0 
     -1.00000000    61     62      0      0 
     -1.00000000    62     61      0      0 
     -1.00000000    62     75      0      0 
     -1.00000000    62     63      0      0 
     -1.00000000    62     77      0      0 
     -1.00000000    63     48      0      0 
     -1.00000000    63     62      0      0 
     -1.00000000    63     50      0      0 
     -1.00000000    63     64      0      0 
     -1.00000000    64     63      0      0 
     -1.00000000    64     77      0      0 
     -1.00000000    64     65      0      0 
     -1.00000000    64     79      0      0 
     -1.00000000    65     50      0      0 
     -1.00000000    65     64      0      0 
     -1.00000000    65     52      0      0 
     -1.00000000    65     66      0      0 
     -1.00000000    66     65      0      0 
     -1.00000000    66     79      0      0 
     -1.00000000    66     67      0      0 
     -1.00000000    66     81      0      0 
     -1.00000000    67     52      0      0 
     -1.00000000    67     66      0      0 
     -1.00000000    67     54      0      0 
     -1.00000000    67     68      0      0 
     -1.00000000    68     67      0      0 
     -1.00000000    68     81      0      0 
     -1.00000000    68     69      0      0 
     -1.00000000    68     83      0      0 
     -1.00000000    69     54      0      0 
     -1.00000000    69     68      0      0 
     -1.00000000    69     56      0      0 
     -1.00000000    69     70      0      0 
     -1.00000000    70     69      0      0 
     -1.00000000    70     83      0      0 
     -1.00000000    70     57      0      0 
     -1.00000000    70     71      0      0 
     -1.00000000    71     70      0      0 
     -1.00000000    71     84      0      0 
     -1.00000000    71     58      0      0 
     -1.00000000    71     72      0      0 
     -1.00000000    72     71      0      0 
     -1.00000000    72     85      0      0 
     -1.00000000    72     73      0      0 
     -1.00000000    72     87      0      0 
     -1.00000000    73     58      0      0 
     -1.00000000    73     72      0      0 
     -1.00000000    73     60      0      0 
     -1.00000000    73     74      0      0 
     -1.00000000    74     73      0      0 
     -1.00000000    74     87      0      0 
     -1.00000000    74     75      0      0 
     -1.00000000    74     89      0      0 
     -1.00000000    75     60      0      0 
     -1.00000000    75     74      0      0 
     -1.00000000    75     62      0      0 
     -1.00000000    75     76      0      0 
     -1.00000000    76     75      0      0 
     -1.00000000    76     89      0      0 
     -1.00000000    76     77      0      0 
     -1.00000000    76     91      0      0 
     -1.00000000    77     62      0      0 
     -1.00000000    77     76      0      0 
     -1.00000000    77     64      0      0 
     -1.00000000    77     78      0      0 
     -1.00000000    78     77      0      0 
     -1.00000000    78     91      0      0 
     -1.00000000    78     79      0      0 
     -1.00000000    78     93      0      0 
     -1.00000000    79     64      0      0 
     -1.00000000    79     78      0      0 
     -1.00000000    79     66      0      0 
     -1.00000000    79     80      0      0 
     -1.00000000    80     79      0      0 
     -1.00000000    80     93      0      0 
     -1.00000000    80     81      0      0 
     -1.00000000    80     95      0      0 
     -1.00000000    81     66      0      0 
     -1.00000000    81     80      0      0 
     -1.00000000    81     68      0      0 
     -1.00000000    81     82      0      0 
     -1.00000000    82     81      0      0 
     -1.00000000    82     95      0      0 
     -1.00000000    82     83      0      0 
     -1.00000000    82     97      0      0 
     -1.00000000    83     68      0      0 
     -1.00000000    83     82      0      0 
     -1.00000000    83     70      0      0 
     -1.00000000    83     84      0      0 
     -1.00000000    84     83      0      0 
     -1.00000000    84     97      0      0 
     -1.00000000    84     71      0      0 
     -1.00000000    84     85      0      0 
     -1.00000000    85     84      0      0 
     -1.00000000    85     98      0      0 
     -1.00000000    85     72      0      0 
     -1.00000000    85     86      0      0 
     -1.00000000    86     85      0      0 
     -1.00000000    86      1      0      0 
     -1.00000000    86     87      0      0 
     -1.00000000    86      3      0      0 
     -1.00000000    87     72      0      0 
     -1.00000000    87     86      0      0 
     -1.00000000    87     74      0      0 
     -1.00000000    87     88      0      0 
     -1.00000000    88     87      0      0 
     -1.00000000    88      3      0      0 
     -1.00000000    88     89      0      0 
     -1.00000000    88      5      0      0 
     -1.00000000    89     74      0      0 
     -1.00000000    89     88      0      0 
     -1.00000000    89     76      0      0 
     -1.00000000    89     90      0      0 
     -1.00000000    90     89      0      0 
     -1.00000000    90      5      0      0 
     -1.00000000    90     91      0      0 
     -1.00000000    90      7      0      0 
     -1.00000000    91     76      0      0 
     -1.00000000    91     90      0      0 
     -1.00000000    91     78      0      0 
     -1.00000000    91     92      0      0 
     -1.00000000    92     91      0      0 
     -1.00000000    92      7      0      0 
     -1.00000000    92     93      0      0 
     -1.00000000    92      9      0      0 
     -1.00000000    93     78      0      0 
     -1.00000000    93     92      0      0 
     -1.00000000    93     80      0      0 
     -1.00000000    93     94      0      0 
     -1.00000000    94     93      0      0 
     -1.00000000    94      9      0      0 
     -1.00000000    94     95      0      0 
     -1.00000000    94     11      0      0 
     -1.00000000    95     80      0      0 
     -1.00000000    95     94      0      0 
     -1.00000000    95     82      0      0 
     -1.00000000    95     96      0      0 
     -1.00000000    96     95      0      0 
     -1.00000000    96     11      0      0 
     -1.00000000    96     97      0      0 
     -1.00000000    96     13      0      0 
     -1.00000000    97     82      0      0 
     -1.00000000    97     96      0      0 
     -1.00000000    97     84      0      0 
     -1.00000000    97     98      0      0 
     -1.00000000    98     97      0      0 
     -1.00000000    98     13      0      0 
     -1.00000000    98     85      0      0 
     -1.00000000    98      1      0      0 
      2.00000000     1      1      1      1 
      2.00000000     2      2      2      2 
      2.00000000     3      3      3      3 
      2.00000000     4      4      4      4 
      2.00000000     5      5      5      5 
      2.00000000     6      6      6      6 
      2.00000000     7      7      7      7 
      2.00000000     8      8      8      8 
      2.00000000     9      9      9      9 
      2.00000000    10     10     10     10 
      2.00000000    11     11     11     11 
      2.00000000    12     12     12     12 
      2.00000000    13     13     13     13 
      2.00000000    14     14     14     14 
      2.00000000    15     15     15     15 
      2.00000000    16     16     16     16 
      2.00000000    17     17     17     17 
      2.00000000    18     18     18     18 
      2.00000000    19     19     19     19 
      2.00000000    20     20     20     20 
      2.00000000    21     21     21     21 
      2.00000000    22     22     22     22 
      2.00000000    23     23     23     23 
      2.00000000    24     24     24     24 
      2.00000000    25     25     25     25 
      2.00000000    26     26     26     26 
      2.00000000    27     27     27     27 
      2.00000000    28     28     28     28 
      2.00000000    29     29     29     29 
      2.00000000    30     30     30     30 
      2.00000000    31     31     31     31 
      2.00000000    32     32     32     32 
      2.00000000    33     33     33     33 
      2.00000000    34     34     34     34 
      2.00000000    35     35     35     35 
      2.00000000    36     36     36     36 
      2.00000000    37     37     37     37 
      2.00000000    38     38     38     38 
      2.00000000    39     39     39     39 
      2.00000000    40     40     40     40 
      2.00000000    41     41     41     41 
      2.00000000    42     42     42     42 
      2.00000000    43     43     43     43 
      2.00000000    44     44     44     44 
      2.00000000    45     45     45     45 
      2.00000000    46     46     46     46 
      2.00000000    47     47     47     47 
      2.00000000    48     48     48     48 
      2.00000000    49     49     49     49 
      2.00000000    50     50     50     50 
      2.00000000    51     51     51     51 
      2.00000000    52     52     52     52 
      2.00000000    53     53     53     53 
      2.00000000    54     54     54     54 
      2.00000000    55     55     55     55 
      2.00000000    56     56     56     56 
      2.00000000    57     57     57     57 
      2.00000000    58     58     58     58 
      2.00000000    59     59     59     59 
      2.00000000    60     60     60     60 
      2.00000000    61     61     61     61 
      2.00000000    62     62     62     62 
      2.00000000    63     63     63     63 
      2.00000000    64     64     64     64 
      2.00000000    65     65     65     65 
      2.00000000    66     66     66     66 
      2.00000000    67     67     67     67 
      2.00000000    68     68     68     68 
      2.00000000    69     69     69     69 
      2.00000000    70     70     70     70 
      2.00000000    71     71     71     71 
      2.00000000    72     72     72     72 
      2.00000000    73     73     73     73 
      2.00000000    74     74     74     74 
      2.00000000    75     75     75     75 
      2.00000000    76     76     76     76 
      2.00000000    77     77     77     77 
      2.00000000    78     78     78     78 
      2.00000000    79     79     79     79 
      2.00000000    80     80     80     80 
      2.00000000    81     81     81     81 
      2.00000000    82     82     82     82 
      2.00000000    83     83     83     83 
      2.00000000    84     84     84     84 
      2.00000000    85     85     85     85 
      2.00000000    86     86     86     86 
      2.00000000    87     87     87     87 
      2.00000000    88     88     88     88 
      2.00000000    89     89     89     89 
      2.00000000    90     90     90     90 
      2.00000000    91     91     91     91 
      2.00000000    92     92     92     92 
      2.00000000    93     93     93     93 
      2.00000000    94     94     94     94 
      2.00000000    95     95     95     95 
      2.00000000    96     96     96     96 
      2.00000000    97     97     97     97 
      2.00000000    98     98     98     98 
