 &FCI NORB=  18,NELEC=14,MS2=0,
  ORBSYM=1,1,1,1,1,1,1,1,1,1,1,1,1,1,1,1,1,1,
  ISYM=1,
 &END
 4.2608883755485    1    1    1    1
 -0.1874799929977339    1    1    2    1
 1.353521144877414    1    1    2    2
 0.1461607512459385    1    1    3    1
 -0.01137620363499891    1    1    3    2
 0.4366468792431143    1    1    3    3
 -2.625993222030869e-15    1    1    4    2
 3.976077210002253e-14    1    1    4    3
 1.315798518768266    1    1    4    4
 -4.272974418239771e-15    1    1    5    2
 7.975869775228285e-14    1    1    5    3
 -1.057854577887922e-15    1    1    5    4
 1.315798518768268    1    1    5    5
 -0.149410986429814    1    1    6    1
 -0.132862541091895    1    1    6    2
 0.0209055781606923    1    1    6    3
 -4.015180455002563e-15    1    1    6    5
 1.222446504961152    1    1    6    6
 -4.707664605448876e-15    1    1    7    3
 -0.04488032046360106    1    1    7    4
 0.4431912124941789    1    1    7    7
 -2.343393695467635e-15    1    1    8    2
 3.257348651038222e-14    1    1    8    3
 -0.04488032046359881    1    1    8    5
 -1.376281198837079e-15    1    1    8    6
 0.4431912124941831    1    1    8    8
 0.1384260514086513    1    1    9    1
 0.05948457081775262    1    1    9    2
 0.01497603779576948    1    1    9    3
 1.559551405362443e-14    1    1    9    4
 3.547053226279354e-14    1    1    9    5
 0.00762500803608088    1    1    9    6
 -2.166149508401917e-15    1    1    9    7
 1.414691540513438e-14    1    1    9    8
 0.4622415201240045    1    1    9    9
 0.003622958658820287    1    1   10    1
 -0.04295851377293787    1    1   10    2
 0.006997579459883997    1    1   10    3
 0.008912328542558676    1    1   10    6
 -0.004647693489314346    1    1   10    9
 0.6269670597740593    1    1   10   10
 -0.02815448341748163    1    1   11    1
 -0.07355510035342594    1    1   11    2
 0.009250431038037851    1    1   11    3
 2.254149619794705e-15    1    1   11    4
 3.434477630779968e-15    1    1   11    5
 -0.004532225135618872    1    1   11    6
 1.630782229006296e-15    1    1   11    8
 -0.003782939345991709    1    1   11    9
 -0.008727657343378313    1    1   11   10
 0.4558815828294496    1    1   11   11
 -0.04746267403881956    1    1   12    1
 0.01134973723010081    1    1   12    2
 -0.03683291561252328    1    1   12    3
 -1.789212713388423e-14    1    1   12    4
 -3.480806496954433e-14    1    1   12    5
 -0.03377119741547428    1    1   12    6
 1.823243906792868e-15    1    1   12    7
 -1.442918269850279e-14    1    1   12    8
 -0.02656163493494833    1    1   12    9
 0.01344069023131061    1    1   12   10
 0.01284770584554677    1    1   12   11
 0.3153351505649934    1    1   12   12
 9.251884984283974e-15    1    1   13    3
 -0.01001849371095241    1    1   13    4
 0.01436532125803698    1    1   13    7
 3.873256250964327e-15    1    1   13    9
 -4.297812133542258e-15    1    1   13   12
 0.5672896296359689    1    1   13   13
 -2.138671619178091e-15    1    1   14    2
 3.387798937950081e-14    1    1   14    3
 -0.01001849371095219    1    1   14    5
 -1.640324396536426e-15    1    1   14    6
 0.01436532125803823    1    1   14    8
 1.487904571685438e-14    1    1   14    9
 1.506441133130072e-15    1    1   14   11
 -1.488574023811518e-14    1    1   14   12
 0.5672896296359707    1    1   14   14
 0.128742400209582    1    1   15    1
 -0.02863822716080448    1    1   15    2
 0.04691824395892346    1    1   15    3
 3.111674891388035e-15    1    1   15    4
 4.340481482101403e-15    1    1   15    5
 0.07102169699642583    1    1   15    6
 2.006845488689458e-15    1    1   15    8
 -0.003848228495843707    1    1   15    9
 0.02079793338537144    1    1   15   10
 -0.01305785329056858    1    1   15   11
 0.03290911256869646    1    1   15   12
 2.127510918489305e-15    1    1   15   14
 0.7481446917402171    1    1   15   15
 1.123066412344346e-14    1    1   16    3
 0.05408063218628732    1    1   16    4
 0.01795176625561276    1    1   16    7
 4.647312523590917e-15    1    1   16    9
 -5.020939590031548e-15    1    1   16   12
 0.009780278888863937    1    1   16   13
 0.3328355167100585    1    1   16   16
 -1.771138260193218e-15    1    1   17    2
 3.011460257366437e-14    1    1   17    3
 0.05408063218628424    1    1   17    5
 -1.602410191066735e-15    1    1   17    6
 0.01795176625561304    1    1   17    8
 1.337530330273497e-14    1    1   17    9
 1.238835255453853e-15    1    1   17   11
 -1.319095889071104e-14    1    1   17   12
 0.009780278888863169    1    1   17   14
 1.96773567162638e-15    1    1   17   15
 0.3328355167100553    1    1   17   17
 0.1057118658397508    1    1   18    1
 0.1220505415259166    1    1   18    2
 0.08124734337139647    1    1   18    3
 -3.965168277734448e-14    1    1   18    4
 -7.984333716959656e-14    1    1   18    5
 0.1135642719011388    1    1   18    6
 4.396039941085717e-15    1    1   18    7
 -3.231032916678359e-14    1    1   18    8
 0.04646500654314545    1    1   18    9
 -0.001404458458595336    1    1   18   10
 -0.01651945385592643    1    1   18   11
 0.02135461877841525    1    1   18   12
 -9.398581064442391e-15    1    1   18   13
 -3.381334448792855e-14    1    1   18   14
 0.01639286530265908    1    1   18   15
 -1.123259921498967e-14    1    1   18   16
 -3.021090483914061e-14    1    1   18   17
 0.3935363649214917    1    1   18   18
 -0.1874799929977339    2    1    1    1
 0.05897776195633297    2    1    2    1
 0.03209726706173874    2    1    2    2
 -0.01174967736266796    2    1    3    1
 0.001024130956629088    2    1    3    2
 -0.001543923822592031    2    1    3    3
 -0.005400001183932948    2    1    4    4
 -0.005400001183932962    2    1    5    5
 -0.01586581203295818    2    1    6    1
 0.006514731033453895    2    1    6    2
 -0.002123819921083715    2    1    6    3
 -0.04504652538747237    2    1    6    6
 -0.0003993112075362011    2    1    7    4
 -0.002859232037985454    2    1    7    7
 -0.0003993112075362071    2    1    8    5
 -0.002859232037985475    2    1    8    8
 0.0006094166129609624    2    1    9    1
 0.005143257253881204    2    1    9    2
 0.0007050623255805633    2    1    9    3
 -0.001160834124877512    2    1    9    6
 -0.005055484078311284    2    1    9    9
 -0.002442273745510981    2    1   10    1
 -0.001048577171945713    2    1   10    2
 0.0007261470232377784    2    1   10    3
 -0.0008476612324964886    2    1   10    6
 -0.0004775695507162785    2    1   10    9
 0.02079793338537465    2    1   10   10
 -0.0004600360664434024    2    1   11    1
 -0.003236015742983435    2    1   11    2
 0.00188351103757086    2    1   11    3
 0.0009075263747818634    2    1   11    6
 -0.001269647476841321    2    1   11    9
 -0.0004384538388257357    2    1   11   10
 0.01130040349728634    2    1   11   11
 0.003425032335647618    2    1   12    1
 0.0005003304509380038    2    1   12    2
 0.00238897586997654    2    1   12    3
 0.00132325706483633    2    1   12    6
 -0.0001254977913089978    2    1   12    9
 0.0006880638595781949    2    1   12   10
 1.168058352138077e-05    2    1   12   11
 0.003334593475723231    2    1   12   12
 0.003287142335337247    2    1   13    4
 0.0008851445964751993    2    1   13    7
 0.01350244882292235    2    1   13   13
 1.045363698001462e-15    2    1   14    3
 0.003287142335337247    2    1   14    5
 0.000885144596475232    2    1   14    8
 0.0135024488229224    2    1   14   14
 -0.01946533467576261    2    1   15    1
 0.01224397601557199    2    1   15    2
 0.00142652376357118    2    1   15    3
 -0.01225407716764504    2    1   15    6
 0.0006091639092451443    2    1   15    9
 0.0003508490233832142    2    1   15   10
 -0.002188144204388019    2    1   15   11
 0.00148458333728908    2    1   15   12
 0.01672041191414135    2    1   15   15
 6.816819331967276e-05    2    1   16    4
 0.0004773648546773319    2    1   16    7
 -8.441492808655761e-05    2    1   16   13
 0.003144300801502984    2    1   16   16
 6.816819331967428e-05    2    1   17    5
 0.0004773648546773556    2    1   17    8
 -8.441492808659032e-05    2    1   17   14
 0.003144300801502955    2    1   17   17
 -0.002618178613880928    2    1   18    1
 0.006361210415198036    2    1   18    2
 0.0006478142100952323    2    1   18    3
 -0.006148327024579956    2    1   18    6
 -0.002028981423423341    2    1   18    9
 0.0001883463391326917    2    1   18   10
 -6.841812978387939e-06    2    1   18   11
 3.926876484380488e-05    2    1   18   12
 -1.027339417461068e-15    2    1   18   14
 -0.001011113070972311    2    1   18   15
 0.002257450390008992    2    1   18   18
 1.353521144877414    2    2    1    1
 0.03209726706173809    2    2    2    1
 1.12713642106791    2    2    2    2
 0.02539872977033915    2    2    3    1
 0.01331104515557152    2    2    3    2
 0.4213306592201363    2    2    3    3
 -2.495730078666065e-15    2    2    4    2
 2.927815106658365e-14    2    2    4    3
 0.9660188362171408    2    2    4    4
 -4.381417805851253e-15    2    2    5    2
 6.231222221951104e-14    2    2    5    3
 0.9660188362171428    2    2    5    5
 -0.02627981387694061    2    2    6    1
 -0.04533865866250063    2    2    6    2
 0.005490490155164254    2    2    6    3
 -3.609490942356031e-15    2    2    6    5
 0.8023199637123016    2    2    6    6
 -2.953603176727424e-15    2    2    7    3
 -0.0003722644216826471    2    2    7    4
 0.4111602575555013    2    2    7    7
 -2.340954583634055e-15    2    2    8    2
 3.353359773532658e-14    2    2    8    3
 -0.000372264421680876    2    2    8    5
 -1.511412536495069e-15    2    2    8    6
 0.4111602575555056    2    2    8    8
 0.03881820926520302    2    2    9    1
 0.05048627965523453    2    2    9    2
 0.02037157347011253    2    2    9    3
 1.137910958919235e-14    2    2    9    4
 2.76563495909421e-14    2    2    9    5
 0.02042793473199068    2    2    9    6
 -1.508256020793535e-15    2    2    9    7
 1.456531374407519e-14    2    2    9    8
 0.4086404672334547    2    2    9    9
 -0.003262680878935877    2    2   10    1
 -0.02798596814501366    2    2   10    2
 0.009942080911309898    2    2   10    3
 0.0006394773615579109    2    2   10    6
 -0.005724836071381412    2    2   10    9
 0.748144691740217    2    2   10   10
 -0.01143522701315815    2    2   11    1
 -0.05864862853123693    2    2   11    2
 0.02137892982886765    2    2   11    3
 1.804711373218845e-15    2    2   11    4
 2.784828037514035e-15    2    2   11    5
 -0.001489314703066529    2    2   11    6
 1.703750200511736e-15    2    2   11    8
 -0.009285725237496616    2    2   11    9
 -0.009537346670432602    2    2   11   10
 0.5309223378897612    2    2   11   11
 -0.01168256355774056    2    2   12    1
 0.005001818174648919    2    2   12    2
 -0.01742883982499296    2    2   12    3
 -1.315407014895931e-14    2    2   12    4
 -2.724053536947419e-14    2    2   12    5
 -0.02195865616600895    2    2   12    6
 1.014400923347707e-15    2    2   12    7
 -1.486156848564879e-14    2    2   12    8
 -0.0279893577268315    2    2   12    9
 0.0166951402056854    2    2   12   10
 0.01439088240787656    2    2   12   11
 0.3395108792556711    2    2   12   12
 1.135051648967497e-14    2    2   13    3
 0.01776169618515705    2    2   13    4
 0.01918599747186124    2    2   13    7
 4.749836739514944e-15    2    2   13    9
 -5.300722461313353e-15    2    2   13   12
 0.6483219871871738    2    2   13   13
 -2.698416559464324e-15    2    2   14    2
 4.06129629762896e-14    2    2   14    3
 0.01776169618515723    2    2   14    5
 -1.904874478817012e-15    2    2   14    6
 0.01918599747186274    2    2   14    8
 1.788799303406817e-14    2    2   14    9
 1.776641080214103e-15    2    2   14   11
 -1.788980151037662e-14    2    2   14   12
 0.6483219871871759    2    2   14   14
 0.01133735575472075    2    2   15    1
 0.05121361421046581    2    2   15    2
 0.05412877692486119    2    2   15    3
 2.333470539582572e-15    2    2   15    4
 3.401953141735056e-15    2    2   15    5
 -0.006836115970753589    2    2   15    6
 2.031768171276712e-15    2    2   15    8
 2.815818045924881e-05    2    2   15    9
 0.01672041191413749    2    2   15   10
 -0.0226376938143561    2    2   15   11
 0.03846826719172539    2    2   15   12
 1.026262648076487e-15    2    2   15   13
 2.270043785698686e-15    2    2   15   14
 0.8154115598800903    2    2   15   15
 -1.011906298746018e-15    2    2   16    2
 1.143322345773236e-14    2    2   16    3
 0.04041160978859726    2    2   16    4
 0.02487288889582654    2    2   16    7
 4.777813340650984e-15    2    2   16    9
 -5.145371083046584e-15    2    2   16   12
 0.01108912475511288    2    2   16   13
 1.060568556215973e-15    2    2   16   14
 0.3568537904906447    2    2   16   16
 -1.99072754555879e-15    2    2   17    2
 3.163496538221434e-14    2    2   17    3
 0.04041160978859465    2    2   17    5
 -1.650891727221268e-15    2    2   17    6
 0.02487288889582702    2    2   17    8
 1.404346689924796e-14    2    2   17    9
 1.303072485452455e-15    2    2   17   11
 -1.384366748809882e-14    2    2   17   12
 0.01108912475511197    2    2   17   14
 2.098850979388126e-15    2    2   17   15
 0.3568537904906413    2    2   17   17
 0.03296009009641775    2    2   18    1
 0.1105614354722503    2    2   18    2
 0.08836137073871525    2    2   18    3
 -2.942293629474264e-14    2    2   18    4
 -6.286161139428393e-14    2    2   18    5
 0.06597536547620532    2    2   18    6
 2.495955858456186e-15    2    2   18    7
 -3.348847370264499e-14    2    2   18    8
 0.02373666995012714    2    2   18    9
 0.002011086570579038    2    2   18   10
 -0.01278128876820768    2    2   18   11
 0.02151588598799781    2    2   18   12
 -1.158130406849366e-14    2    2   18   13
 -4.0655842409562e-14    2    2   18   14
 0.01337238321285694    2    2   18   15
 -1.156059961307184e-14    2    2   18   16
 -3.181203502810969e-14    2    2   18   17
 0.4010215792567004    2    2   18   18
 0.1461607512459385    3    1    1    1
 -0.01174967736266795    3    1    2    1
 0.02539872977033759    3    1    2    2
 0.006794406862189493    3    1    3    1
 -0.00110531131833062    3    1    3    2
 0.001217406682325512    3    1    3    3
 1.51423113906012e-15    3    1    4    1
 1.005353597670307e-15    3    1    4    3
 0.02956729395047331    3    1    4    4
 2.122689823116092e-15    3    1    5    1
 1.552261619945935e-15    3    1    5    3
 0.02956729395047338    3    1    5    5
 -0.001558075874890177    3    1    6    1
 -0.006902905535425023    3    1    6    2
 0.001558320111834124    3    1    6    3
 0.03403952929551345    3    1    6    6
 -0.002959804506836871    3    1    7    4
 0.001438540815817324    3    1    7    7
 -0.002959804506836826    3    1    8    5
 0.001438540815817316    3    1    8    8
 0.004604342997207872    3    1    9    1
 0.001041032049506304    3    1    9    2
 -0.001394673298099755    3    1    9    3
 -0.0001007811766775028    3    1    9    6
 0.004457375756868986    3    1    9    9
 0.0003438479003660149    3    1   10    1
 -0.001265958668143011    3    1   10    2
 4.294438526797775e-05    3    1   10    3
 0.0005468978668973759    3    1   10    6
 -9.251842927259415e-06    3    1   10    9
 -0.00140445845866063    3    1   10   10
 -0.001107612667725384    3    1   11    1
 -0.001543719407905016    3    1   11    2
 -0.0002965850263557538    3    1   11    3
 -0.0001865334727879142    3    1   11    6
 0.0003076064156529662    3    1   11    9
 8.197002421858912e-05    3    1   11   10
 -0.0007488196452505301    3    1   11   11
 -0.002065139015263757    3    1   12    1
 0.0007660173849462911    3    1   12    2
 -0.000894044541252776    3    1   12    3
 -0.0009952461484130652    3    1   12    6
 0.0007596109140241522    3    1   12    9
 -3.108848237645326e-05    3    1   12   10
 6.168833980143862e-05    3    1   12   11
 -0.0002418777639177609    3    1   12   12
 -0.001396707644726419    3    1   13    4
 -7.295778812215646e-05    3    1   13    7
 -0.001755193076897659    3    1   13   13
 -0.001396707644726412    3    1   14    5
 -7.29577881221642e-05    3    1   14    8
 -0.001755193076897666    3    1   14   14
 0.007183111694843469    3    1   15    1
 -0.003596766488208009    3    1   15    2
 0.0001454292091505849    3    1   15    3
 0.005244193595626194    3    1   15    6
 0.0002531021116203694    3    1   15    9
 0.0001883463391310074    3    1   15   10
 -0.0007189324469724971    3    1   15   11
 -0.0001106667234284875    3    1   15   12
 0.002011086570497425    3    1   15   15
 0.001288228542334357    3    1   16    4
 -0.0009526847123383474    3    1   16    7
 -0.0001558733613913182    3    1   16   13
 -0.001329030457455366    3    1   16   16
 0.001288228542334308    3    1   17    5
 -0.0009526847123383506    3    1   17    8
 -0.0001558733613913129    3    1   17   14
 -0.001329030457455353    3    1   17   17
 0.004216258499509375    3    1   18    1
 0.002252655284988179    3    1   18    2
 -0.001441722164285615    3    1   18    3
 -1.293344122097219e-15    3    1   18    5
 0.004369264550368851    3    1   18    6
 0.001663608756655485    3    1   18    9
 -3.193941691999083e-06    3    1   18   10
 -6.677311344968828e-05    3    1   18   11
 -0.0004291102731018564    3    1   18   12
 0.0004999247731237742    3    1   18   15
 0.000409065821494233    3    1   18   18
 -0.01137620363498795    3    2    1    1
 0.001024130956631079    3    2    2    1
 0.01331104515555558    3    2    2    2
 -0.001105311318342508    3    2    3    1
 0.004263459914936167    3    2    3    2
 0.006538819091394524    3    2    3    3
 1.011050998380536e-15    3    2    4    1
 4.271983320254648e-15    3    2    4    2
 1.198266719921852e-15    3    2    4    3
 0.01823546511663893    3    2    4    4
 1.895254262189561e-15    3    2    5    1
 8.593913517034923e-15    3    2    5    2
 2.901139299185459e-15    3    2    5    3
 0.01823546511663896    3    2    5    5
 0.0001413302796633188    3    2    6    1
 0.002774346097239383    3    2    6    2
 0.001102190045224557    3    2    6    3
 2.165469286532916e-15    3    2    6    4
 4.113687027133954e-15    3    2    6    5
 0.01597134540605975    3    2    6    6
 0.003430596096163777    3    2    7    4
 0.003714003283157834    3    2    7    7
 1.406802183026337e-15    3    2    8    3
 0.003430596096163839    3    2    8    5
 0.003714003283157877    3    2    8    8
 -0.001006024936651179    3    2    9    1
 -0.0001948325687069948    3    2    9    2
 -0.000373387121838612    3    2    9    3
 1.616667108646188e-15    3    2    9    5
 0.003447590433598957    3    2    9    6
 0.008196117687084213    3    2    9    9
 2.902943986720697e-05    3    2   10    1
 9.355604903204951e-05    3    2   10    2
 0.0001751280390949135    3    2   10    3
 -0.0001625034768790504    3    2   10    6
 -0.0001785616491712917    3    2   10    9
 0.01639286530245569    3    2   10   10
 0.0003408837704093456    3    2   11    1
 0.0002267305809016734    3    2   11    2
 0.0007636719456900507    3    2   11    3
 -0.0001533945996331914    3    2   11    6
 -9.567573208257618e-05    3    2   11    9
 0.0006882229357717075    3    2   11   10
 0.01386499937571646    3    2   11   11
 0.0003690604026959688    3    2   12    1
 -0.000126468962539474    3    2   12    2
 0.000340718085306375    3    2   12    3
 -0.0003638566201409582    3    2   12    6
 0.001351087562368994    3    2   12    9
 0.0003134414459217815    3    2   12   10
 0.001014983101467395    3    2   12   11
 0.006177760279958353    3    2   12   12
 0.0005375240970773088    3    2   13    4
 0.000677778931450354    3    2   13    7
 0.01076266165692423    3    2   13   13
 1.201019450424299e-15    3    2   14    2
 1.237916284930274e-15    3    2   14    3
 0.0005375240970773157    3    2   14    5
 0.0006777789314503794    3    2   14    8
 0.01076266165692426    3    2   14   14
 -0.00143489533172631    3    2   15    1
 0.000145554448014011    3    2   15    2
 0.0006149443051956592    3    2   15    3
 -0.0008524625413073502    3    2   15    6
 0.0003982284115975115    3    2   15    9
 -0.001011113070976598    3    2   15   10
 -0.002586185979160873    3    2   15   11
 0.0004205002739213451    3    2   15   12
 1.19995751722237e-15    3    2   15   13
 2.113557074063128e-15    3    2   15   14
 0.01337238321261114    3    2   15   15
 0.00181331377295795    3    2   16    4
 -0.0007510960418564315    3    2   16    7
 0.0003149363188057042    3    2   16   13
 0.001879244676451723    3    2   16   16
 0.001813313772957893    3    2   17    5
 -0.0007510960418564385    3    2   17    8
 0.0003149363188056814    3    2   17   14
 0.001879244676451703    3    2   17   17
 -0.0007614733890311484    3    2   18    1
 0.003785824220044069    3    2   18    2
 -0.0005046716489420738    3    2   18    3
 1.223864433170667e-15    3    2   18    5
 0.002932136519559321    3    2   18    6
 0.001484701927003474    3    2   18    9
 0.0004999247731265629    3    2   18   10
 0.0002635351212811465    3    2   18   11
 -0.003159073625321892    3    2   18   12
 0.0008901462382427893    3    2   18   15
 0.005904043446224788    3    2   18   18
 0.4366468792430822    3    3    1    1
 -0.001543923822614586    3    3    2    1
 0.4213306592204026    3    3    2    2
 0.001217406682439833    3    3    3    1
 0.006538819091496343    3    3    3    2
 0.3606358831396272    3    3    3    3
 1.203035662506401e-15    3    3    4    2
 1.31672005686976e-14    3    3    4    3
 0.4240743180078975    3    3    4    4
 9.239117937054775e-15    3    3    5    2
 3.085990626421153e-14    3    3    5    3
 0.4240743180078983    3    3    5    5
 -0.0005940001319905141    3    3    6    1
 -0.004181630482215938    3    3    6    2
 0.0007259793722005836    3    3    6    3
 1.31094718349682e-15    3    3    6    4
 6.659339133892308e-15    3    3    6    5
 0.4192495829465619    3    3    6    6
 -1.560170348520039e-15    3    3    7    3
 0.0114444927894688    3    3    7    4
 0.3496942867273684    3    3    7    7
 -1.538676647991426e-15    3    3    8    1
 -3.341239645357152e-15    3    3    8    2
 3.862455584072416e-14    3    3    8    3
 0.01144449278946951    3    3    8    5
 -3.360787959888249e-15    3    3    8    6
 0.3496942867273718    3    3    8    8
 0.001031477473005842    3    3    9    1
 -7.774484855262365e-05    3    3    9    2
 -0.009877716810768078    3    3    9    3
 5.129355903046575e-15    3    3    9    4
 1.463938418513641e-14    3    3    9    5
 0.009224539497051916    3    3    9    6
 2.087317330561679e-14    3    3    9    8
 0.3660488631408677    3    3    9    9
 -7.470697052524159e-05    3    3   10    1
 -0.002991719376752413    3    3   10    2
 0.0007809063844781579    3    3   10    3
 0.0003645892913894774    3    3   10    6
 -0.0005084292839070139    3    3   10    9
 0.3935363649212976    3    3   10   10
 -0.001079670165339943    3    3   11    1
 -0.008546090573677714    3    3   11    2
 0.002872006831539509    3    3   11    3
 -3.960501550089878e-05    3    3   11    6
 0.001991296904795525    3    3   11    9
 -0.0009847517480860912    3    3   11   10
 0.3488817597416641    3    3   11   11
 -0.001441993814453617    3    3   12    1
 -0.002405230618530946    3    3   12    2
 -0.02487234669872286    3    3   12    3
 -5.912298274236889e-15    3    3   12    4
 -1.377523037790942e-14    3    3   12    5
 -0.007977160387847277    3    3   12    6
 -1.569541820163477e-14    3    3   12    8
 -0.005276180735674572    3    3   12    9
 0.004097440976861945    3    3   12   10
 0.01065699892809489    3    3   12   11
 0.2881747275516647    3    3   12   12
 7.473381454935556e-15    3    3   13    3
 0.001222575965903994    3    3   13    4
 0.002394899861658285    3    3   13    7
 2.403933733364905e-15    3    3   13    9
 2.364270283168293e-15    3    3   13   11
 -2.532663147315206e-15    3    3   13   12
 0.3788439341026508    3    3   13   13
 2.655158068005701e-14    3    3   14    3
 0.00122257596590402    3    3   14    5
 -2.826026494280472e-15    3    3   14    6
 0.00239489986165912    3    3   14    8
 8.054349541948217e-15    3    3   14    9
 1.777990906241127e-15    3    3   14   10
 9.771240187660129e-15    3    3   14   11
 -7.601192067373396e-15    3    3   14   12
 0.378843934102652    3    3   14   14
 0.001382313291473121    3    3   15    1
 0.001597142103699365    3    3   15    2
 0.005396669514659519    3    3   15    3
 1.244264883403445e-15    3    3   15    4
 2.354476479869766e-15    3    3   15    5
 0.0008340726532611009    3    3   15    6
 -0.000526619547890003    3    3   15    9
 0.002257450389981245    3    3   15   10
 0.001041042926042733    3    3   15   11
 0.01283032461927677    3    3   15   12
 3.196652246859473e-15    3    3   15   13
 1.321738572382442e-14    3    3   15   14
 0.4010215792567732    3    3   15   15
 9.927546821636855e-15    3    3   16    3
 0.01004446095922864    3    3   16    4
 0.01133826787352402    3    3   16    7
 3.174692960616497e-15    3    3   16    9
 -2.190610075004815e-15    3    3   16   12
 0.008068865883207751    3    3   16   13
 0.2898180193649558    3    3   16   16
 -2.407001730902338e-15    3    3   17    2
 3.038506061142417e-14    3    3   17    3
 0.01004446095922733    3    3   17    5
 -1.969088539302494e-15    3    3   17    6
 0.01133826787352427    3    3   17    8
 8.101338867068965e-15    3    3   17    9
 -1.246542075937419e-15    3    3   17   10
 -2.851498364256801e-15    3    3   17   12
 0.008068865883207306    3    3   17   14
 0.2898180193649532    3    3   17   17
 0.002214147793848206    3    3   18    1
 0.01812264147561962    3    3   18    2
 0.02529694597043955    3    3   18    3
 -1.169398222035664e-14    3    3   18    4
 -2.346415308198557e-14    3    3   18    5
 0.01412957654121207    3    3   18    6
 3.493705359999835e-15    3    3   18    7
 -2.070604331670595e-14    3    3   18    8
 0.02803860329665233    3    3   18    9
 0.0004090658216161877    3    3   18   10
 -0.00400614370164197    3    3   18   11
 0.01558251775635543    3    3   18   12
 -5.874643494163993e-15    3    3   18   13
 -1.944023973278942e-14    3    3   18   14
 0.005904043446375317    3    3   18   15
 -7.370143102553882e-15    3    3   18   16
 -1.479658893665677e-14    3    3   18   17
 0.317154229651757    3    3   18   18
 1.51423113906012e-15    4    1    3    1
 1.011050998380538e-15    4    1    3    2
 0.04943859446278015    4    1    4    1
 0.03174201500981624    4    1    4    2
 0.003975681951377766    4    1    4    3
 0.03012127165447531    4    1    6    4
 -0.01087930989777963    4    1    7    1
 -0.003136982381702783    4    1    7    2
 0.001538749126424274    4    1    7    3
 -0.002184169873447955    4    1    7    6
 0.003549939522275347    4    1    9    4
 0.001935204431139669    4    1    9    7
 -0.001395156457778817    4    1   10    4
 8.099431754769812e-05    4    1   10    7
 -0.003993595961504965    4    1   11    4
 0.0003479895391319399    4    1   11    7
 -0.001666915881347898    4    1   12    4
 -0.0004609532279159374    4    1   12    7
 -0.003284214362932203    4    1   13    1
 0.001844512326023919    4    1   13    2
 0.000476393546133545    4    1   13    3
 -0.002699870076582501    4    1   13    6
 -0.0003106879605628512    4    1   13    9
 0.0001718200686668973    4    1   13   10
 0.0007963884670187105    4    1   13   11
 0.0005214570715918981    4    1   13   12
 0.002481452342568962    4    1   15    4
 -0.0006870817818450632    4    1   15    7
 0.00298133636864805    4    1   15   13
 0.001870916805792309    4    1   16    1
 0.001810376585941497    4    1   16    2
 0.001141362123893887    4    1   16    3
 0.0009621965452208908    4    1   16    6
 -0.0002973929298888067    4    1   16    9
 -0.0002957003038216122    4    1   16   10
 -0.0004747764110037411    4    1   16   11
 0.0006104811443428488    4    1   16   12
 -0.0002246180383943761    4    1   16   15
 -1.527461166891794e-15    4    1   18    1
 -1.071046236679054e-15    4    1   18    2
 0.01181545153251665    4    1   18    4
 0.0001438228585895679    4    1   18    7
 0.0002238633062139381    4    1   18   13
 0.00171869344984192    4    1   18   16
 -2.625993222030869e-15    4    2    1    1
 -2.495730078666069e-15    4    2    2    2
 4.271983320254666e-15    4    2    3    2
 1.203035662506348e-15    4    2    3    3
 0.03174201500981623    4    2    4    1
 0.1348294755122025    4    2    4    2
 0.02051941264616097    4    2    4    3
 -2.048650975238946e-15    4    2    4    4
 -1.829845143963204e-15    4    2    5    5
 1.871376036447338e-15    4    2    6    3
 0.0695723924892899    4    2    6    4
 -1.836246066320491e-15    4    2    6    6
 -0.01108017754819687    4    2    7    1
 -0.006958724970600992    4    2    7    2
 0.02921133938046561    4    2    7    3
 -0.002944845693980389    4    2    7    6
 1.688569143971513e-15    4    2    9    2
 0.01596279169684166    4    2    9    4
 0.02555245838927436    4    2    9    7
 -0.007313584191952998    4    2   10    4
 -0.0007773900589558977    4    2   10    7
 -1.063130992514956e-15    4    2   10   10
 -0.01476549965219444    4    2   11    4
 -0.001802474897812387    4    2   11    7
 -2.009608490637329e-15    4    2   12    2
 -0.00704806348831114    4    2   12    4
 -0.008526211774936673    4    2   12    7
 -0.004485829911195102    4    2   13    1
 0.01454785312756238    4    2   13    2
 0.01194097585598995    4    2   13    3
 -0.009054603147359215    4    2   13    6
 -0.004057397783213653    4    2   13    9
 0.002981336368647993    4    2   13   10
 0.0145861142920422    4    2   13   11
 0.005976735015810711    4    2   13   12